# vtk DataFile Version 3.0
Generated analytic cylinder-flow-style vector field
ASCII
DATASET STRUCTURED_GRID
DIMENSIONS 80 50 3
POINTS 12000 float
-3.000000 -2.500000 -0.050000
-2.898734 -2.500000 -0.050000
-2.797468 -2.500000 -0.050000
-2.696203 -2.500000 -0.050000
-2.594937 -2.500000 -0.050000
-2.493671 -2.500000 -0.050000
-2.392405 -2.500000 -0.050000
-2.291139 -2.500000 -0.050000
-2.189873 -2.500000 -0.050000
-2.088608 -2.500000 -0.050000
-1.987342 -2.500000 -0.050000
-1.886076 -2.500000 -0.050000
-1.784810 -2.500000 -0.050000
-1.683544 -2.500000 -0.050000
-1.582278 -2.500000 -0.050000
-1.481013 -2.500000 -0.050000
-1.379747 -2.500000 -0.050000
-1.278481 -2.500000 -0.050000
-1.177215 -2.500000 -0.050000
-1.075949 -2.500000 -0.050000
-0.974684 -2.500000 -0.050000
-0.873418 -2.500000 -0.050000
-0.772152 -2.500000 -0.050000
-0.670886 -2.500000 -0.050000
-0.569620 -2.500000 -0.050000
-0.468354 -2.500000 -0.050000
-0.367089 -2.500000 -0.050000
-0.265823 -2.500000 -0.050000
-0.164557 -2.500000 -0.050000
-0.063291 -2.500000 -0.050000
0.037975 -2.500000 -0.050000
0.139241 -2.500000 -0.050000
0.240506 -2.500000 -0.050000
0.341772 -2.500000 -0.050000
0.443038 -2.500000 -0.050000
0.544304 -2.500000 -0.050000
0.645570 -2.500000 -0.050000
0.746835 -2.500000 -0.050000
0.848101 -2.500000 -0.050000
0.949367 -2.500000 -0.050000
1.050633 -2.500000 -0.050000
1.151899 -2.500000 -0.050000
1.253165 -2.500000 -0.050000
1.354430 -2.500000 -0.050000
1.455696 -2.500000 -0.050000
1.556962 -2.500000 -0.050000
1.658228 -2.500000 -0.050000
1.759494 -2.500000 -0.050000
1.860759 -2.500000 -0.050000
1.962025 -2.500000 -0.050000
2.063291 -2.500000 -0.050000
2.164557 -2.500000 -0.050000
2.265823 -2.500000 -0.050000
2.367089 -2.500000 -0.050000
2.468354 -2.500000 -0.050000
2.569620 -2.500000 -0.050000
2.670886 -2.500000 -0.050000
2.772152 -2.500000 -0.050000
2.873418 -2.500000 -0.050000
2.974684 -2.500000 -0.050000
3.075949 -2.500000 -0.050000
3.177215 -2.500000 -0.050000
3.278481 -2.500000 -0.050000
3.379747 -2.500000 -0.050000
3.481013 -2.500000 -0.050000
3.582278 -2.500000 -0.050000
3.683544 -2.500000 -0.050000
3.784810 -2.500000 -0.050000
3.886076 -2.500000 -0.050000
3.987342 -2.500000 -0.050000
4.088608 -2.500000 -0.050000
4.189873 -2.500000 -0.050000
4.291139 -2.500000 -0.050000
4.392405 -2.500000 -0.050000
4.493671 -2.500000 -0.050000
4.594937 -2.500000 -0.050000
4.696203 -2.500000 -0.050000
4.797468 -2.500000 -0.050000
4.898734 -2.500000 -0.050000
5.000000 -2.500000 -0.050000
-3.000000 -2.397959 -0.050000
-2.898734 -2.397959 -0.050000
-2.797468 -2.397959 -0.050000
-2.696203 -2.397959 -0.050000
-2.594937 -2.397959 -0.050000
-2.493671 -2.397959 -0.050000
-2.392405 -2.397959 -0.050000
-2.291139 -2.397959 -0.050000
-2.189873 -2.397959 -0.050000
-2.088608 -2.397959 -0.050000
-1.987342 -2.397959 -0.050000
-1.886076 -2.397959 -0.050000
-1.784810 -2.397959 -0.050000
-1.683544 -2.397959 -0.050000
-1.582278 -2.397959 -0.050000
-1.481013 -2.397959 -0.050000
-1.379747 -2.397959 -0.050000
-1.278481 -2.397959 -0.050000
-1.177215 -2.397959 -0.050000
-1.075949 -2.397959 -0.050000
-0.974684 -2.397959 -0.050000
-0.873418 -2.397959 -0.050000
-0.772152 -2.397959 -0.050000
-0.670886 -2.397959 -0.050000
-0.569620 -2.397959 -0.050000
-0.468354 -2.397959 -0.050000
-0.367089 -2.397959 -0.050000
-0.265823 -2.397959 -0.050000
-0.164557 -2.397959 -0.050000
-0.063291 -2.397959 -0.050000
0.037975 -2.397959 -0.050000
0.139241 -2.397959 -0.050000
0.240506 -2.397959 -0.050000
0.341772 -2.397959 -0.050000
0.443038 -2.397959 -0.050000
0.544304 -2.397959 -0.050000
0.645570 -2.397959 -0.050000
0.746835 -2.397959 -0.050000
0.848101 -2.397959 -0.050000
0.949367 -2.397959 -0.050000
1.050633 -2.397959 -0.050000
1.151899 -2.397959 -0.050000
1.253165 -2.397959 -0.050000
1.354430 -2.397959 -0.050000
1.455696 -2.397959 -0.050000
1.556962 -2.397959 -0.050000
1.658228 -2.397959 -0.050000
1.759494 -2.397959 -0.050000
1.860759 -2.397959 -0.050000
1.962025 -2.397959 -0.050000
2.063291 -2.397959 -0.050000
2.164557 -2.397959 -0.050000
2.265823 -2.397959 -0.050000
2.367089 -2.397959 -0.050000
2.468354 -2.397959 -0.050000
2.569620 -2.397959 -0.050000
2.670886 -2.397959 -0.050000
2.772152 -2.397959 -0.050000
2.873418 -2.397959 -0.050000
2.974684 -2.397959 -0.050000
3.075949 -2.397959 -0.050000
3.177215 -2.397959 -0.050000
3.278481 -2.397959 -0.050000
3.379747 -2.397959 -0.050000
3.481013 -2.397959 -0.050000
3.582278 -2.397959 -0.050000
3.683544 -2.397959 -0.050000
3.784810 -2.397959 -0.050000
3.886076 -2.397959 -0.050000
3.987342 -2.397959 -0.050000
4.088608 -2.397959 -0.050000
4.189873 -2.397959 -0.050000
4.291139 -2.397959 -0.050000
4.392405 -2.397959 -0.050000
4.493671 -2.397959 -0.050000
4.594937 -2.397959 -0.050000
4.696203 -2.397959 -0.050000
4.797468 -2.397959 -0.050000
4.898734 -2.397959 -0.050000
5.000000 -2.397959 -0.050000
-3.000000 -2.295918 -0.050000
-2.898734 -2.295918 -0.050000
-2.797468 -2.295918 -0.050000
-2.696203 -2.295918 -0.050000
-2.594937 -2.295918 -0.050000
-2.493671 -2.295918 -0.050000
-2.392405 -2.295918 -0.050000
-2.291139 -2.295918 -0.050000
-2.189873 -2.295918 -0.050000
-2.088608 -2.295918 -0.050000
-1.987342 -2.295918 -0.050000
-1.886076 -2.295918 -0.050000
-1.784810 -2.295918 -0.050000
-1.683544 -2.295918 -0.050000
-1.582278 -2.295918 -0.050000
-1.481013 -2.295918 -0.050000
-1.379747 -2.295918 -0.050000
-1.278481 -2.295918 -0.050000
-1.177215 -2.295918 -0.050000
-1.075949 -2.295918 -0.050000
-0.974684 -2.295918 -0.050000
-0.873418 -2.295918 -0.050000
-0.772152 -2.295918 -0.050000
-0.670886 -2.295918 -0.050000
-0.569620 -2.295918 -0.050000
-0.468354 -2.295918 -0.050000
-0.367089 -2.295918 -0.050000
-0.265823 -2.295918 -0.050000
-0.164557 -2.295918 -0.050000
-0.063291 -2.295918 -0.050000
0.037975 -2.295918 -0.050000
0.139241 -2.295918 -0.050000
0.240506 -2.295918 -0.050000
0.341772 -2.295918 -0.050000
0.443038 -2.295918 -0.050000
0.544304 -2.295918 -0.050000
0.645570 -2.295918 -0.050000
0.746835 -2.295918 -0.050000
0.848101 -2.295918 -0.050000
0.949367 -2.295918 -0.050000
1.050633 -2.295918 -0.050000
1.151899 -2.295918 -0.050000
1.253165 -2.295918 -0.050000
1.354430 -2.295918 -0.050000
1.455696 -2.295918 -0.050000
1.556962 -2.295918 -0.050000
1.658228 -2.295918 -0.050000
1.759494 -2.295918 -0.050000
1.860759 -2.295918 -0.050000
1.962025 -2.295918 -0.050000
2.063291 -2.295918 -0.050000
2.164557 -2.295918 -0.050000
2.265823 -2.295918 -0.050000
2.367089 -2.295918 -0.050000
2.468354 -2.295918 -0.050000
2.569620 -2.295918 -0.050000
2.670886 -2.295918 -0.050000
2.772152 -2.295918 -0.050000
2.873418 -2.295918 -0.050000
2.974684 -2.295918 -0.050000
3.075949 -2.295918 -0.050000
3.177215 -2.295918 -0.050000
3.278481 -2.295918 -0.050000
3.379747 -2.295918 -0.050000
3.481013 -2.295918 -0.050000
3.582278 -2.295918 -0.050000
3.683544 -2.295918 -0.050000
3.784810 -2.295918 -0.050000
3.886076 -2.295918 -0.050000
3.987342 -2.295918 -0.050000
4.088608 -2.295918 -0.050000
4.189873 -2.295918 -0.050000
4.291139 -2.295918 -0.050000
4.392405 -2.295918 -0.050000
4.493671 -2.295918 -0.050000
4.594937 -2.295918 -0.050000
4.696203 -2.295918 -0.050000
4.797468 -2.295918 -0.050000
4.898734 -2.295918 -0.050000
5.000000 -2.295918 -0.050000
-3.000000 -2.193878 -0.050000
-2.898734 -2.193878 -0.050000
-2.797468 -2.193878 -0.050000
-2.696203 -2.193878 -0.050000
-2.594937 -2.193878 -0.050000
-2.493671 -2.193878 -0.050000
-2.392405 -2.193878 -0.050000
-2.291139 -2.193878 -0.050000
-2.189873 -2.193878 -0.050000
-2.088608 -2.193878 -0.050000
-1.987342 -2.193878 -0.050000
-1.886076 -2.193878 -0.050000
-1.784810 -2.193878 -0.050000
-1.683544 -2.193878 -0.050000
-1.582278 -2.193878 -0.050000
-1.481013 -2.193878 -0.050000
-1.379747 -2.193878 -0.050000
-1.278481 -2.193878 -0.050000
-1.177215 -2.193878 -0.050000
-1.075949 -2.193878 -0.050000
-0.974684 -2.193878 -0.050000
-0.873418 -2.193878 -0.050000
-0.772152 -2.193878 -0.050000
-0.670886 -2.193878 -0.050000
-0.569620 -2.193878 -0.050000
-0.468354 -2.193878 -0.050000
-0.367089 -2.193878 -0.050000
-0.265823 -2.193878 -0.050000
-0.164557 -2.193878 -0.050000
-0.063291 -2.193878 -0.050000
0.037975 -2.193878 -0.050000
0.139241 -2.193878 -0.050000
0.240506 -2.193878 -0.050000
0.341772 -2.193878 -0.050000
0.443038 -2.193878 -0.050000
0.544304 -2.193878 -0.050000
0.645570 -2.193878 -0.050000
0.746835 -2.193878 -0.050000
0.848101 -2.193878 -0.050000
0.949367 -2.193878 -0.050000
1.050633 -2.193878 -0.050000
1.151899 -2.193878 -0.050000
1.253165 -2.193878 -0.050000
1.354430 -2.193878 -0.050000
1.455696 -2.193878 -0.050000
1.556962 -2.193878 -0.050000
1.658228 -2.193878 -0.050000
1.759494 -2.193878 -0.050000
1.860759 -2.193878 -0.050000
1.962025 -2.193878 -0.050000
2.063291 -2.193878 -0.050000
2.164557 -2.193878 -0.050000
2.265823 -2.193878 -0.050000
2.367089 -2.193878 -0.050000
2.468354 -2.193878 -0.050000
2.569620 -2.193878 -0.050000
2.670886 -2.193878 -0.050000
2.772152 -2.193878 -0.050000
2.873418 -2.193878 -0.050000
2.974684 -2.193878 -0.050000
3.075949 -2.193878 -0.050000
3.177215 -2.193878 -0.050000
3.278481 -2.193878 -0.050000
3.379747 -2.193878 -0.050000
3.481013 -2.193878 -0.050000
3.582278 -2.193878 -0.050000
3.683544 -2.193878 -0.050000
3.784810 -2.193878 -0.050000
3.886076 -2.193878 -0.050000
3.987342 -2.193878 -0.050000
4.088608 -2.193878 -0.050000
4.189873 -2.193878 -0.050000
4.291139 -2.193878 -0.050000
4.392405 -2.193878 -0.050000
4.493671 -2.193878 -0.050000
4.594937 -2.193878 -0.050000
4.696203 -2.193878 -0.050000
4.797468 -2.193878 -0.050000
4.898734 -2.193878 -0.050000
5.000000 -2.193878 -0.050000
-3.000000 -2.091837 -0.050000
-2.898734 -2.091837 -0.050000
-2.797468 -2.091837 -0.050000
-2.696203 -2.091837 -0.050000
-2.594937 -2.091837 -0.050000
-2.493671 -2.091837 -0.050000
-2.392405 -2.091837 -0.050000
-2.291139 -2.091837 -0.050000
-2.189873 -2.091837 -0.050000
-2.088608 -2.091837 -0.050000
-1.987342 -2.091837 -0.050000
-1.886076 -2.091837 -0.050000
-1.784810 -2.091837 -0.050000
-1.683544 -2.091837 -0.050000
-1.582278 -2.091837 -0.050000
[...]
POINT_DATA 12000
SCALARS speed float 1
LOOKUP_TABLE default
0.995377
0.996172
0.997086
0.998130
0.999317
1.000660
1.002171
1.003865
1.005752
1.007844
1.010149
1.012676
1.015426
1.018399
1.021589
1.024981
1.028556
1.032283
1.036125
1.040034
1.043951
1.047811
1.051540
1.055059
1.058287
1.061142
1.063550
1.065442
1.066764
1.067476
1.067555
1.067000
1.065828
1.064074
1.061789
1.059039
1.055897
1.052443
1.048759
1.044924
1.041015
1.037098
1.033235
1.029475
1.025859
1.022418
1.019177
1.016149
1.013342
1.010760
1.008400
1.006255
1.004318
1.002577
1.001021
0.999638
0.998413
0.997334
0.996389
0.995565
0.994852
0.994237
0.993711
0.993266
0.992891
0.992580
0.992325
0.992121
0.991960
0.991839
0.991751
0.991694
0.991664
0.991656
0.991668
0.991698
0.991742
0.991800
0.991869
0.991947
0.994082
0.994837
0.995717
0.996734
0.997904
0.999242
1.000763
1.002484
1.004420
1.006585
1.008994
1.011657
1.014582
1.017770
1.021220
1.024919
1.028849
1.032979
1.037269
1.041665
1.046102
1.050502
1.054780
1.058839
1.062582
1.065907
1.068721
1.070939
1.072492
1.073329
1.073423
1.072770
1.071392
1.069335
1.066662
1.063456
1.059809
1.055819
1.051587
1.047208
1.042773
1.038360
1.034038
1.029864
1.025881
1.022122
1.018609
1.015354
1.012364
1.009636
1.007164
1.004939
1.002947
1.001174
0.999604
0.998222
0.997012
0.995958
0.995045
0.994260
0.993589
0.993020
0.992542
0.992145
0.991820
0.991557
0.991351
0.991193
0.991079
0.991001
0.990957
0.990940
0.990949
0.990978
0.991026
0.991089
0.991166
0.991254
0.991351
0.991457
0.992676
0.993380
0.994211
0.995188
0.996325
0.997642
0.999157
1.000890
1.002860
1.005087
1.007589
1.010382
1.013479
1.016887
1.020608
1.024636
1.028952
1.033529
1.038322
1.043274
1.048311
1.053343
1.058268
1.062972
1.067332
1.071225
1.074534
1.077151
1.078987
1.079978
1.080089
1.079316
1.077686
1.075257
1.072112
1.068354
1.064099
1.059470
1.054589
1.049573
1.044528
1.039548
1.034709
1.030074
1.025689
1.021587
1.017788
1.014301
1.011127
1.008259
1.005686
1.003392
1.001359
0.999569
0.998001
0.996637
0.995456
0.994441
0.993575
0.992841
0.992225
0.991713
0.991293
0.990954
0.990686
0.990480
0.990328
0.990223
0.990160
0.990132
0.990134
0.990162
0.990213
0.990283
0.990369
0.990468
0.990579
0.990699
0.990826
0.990960
0.991157
0.991794
0.992563
0.993481
0.994569
0.995846
0.997335
0.999061
1.001046
1.003317
1.005897
1.008808
1.012070
1.015698
1.019700
1.024075
1.028809
1.033878
1.039236
1.044821
1.050551
1.056323
1.062016
1.067490
1.072596
1.077182
1.081097
1.084205
1.086392
1.087574
1.087707
1.086784
1.084842
1.081954
1.078229
1.073797
1.068807
1.063410
1.057759
1.051995
1.046243
1.040613
1.035192
1.030047
1.025225
1.020759
1.016664
1.012942
1.009590
1.006593
1.003932
1.001586
0.999532
0.997744
0.996197
0.994869
0.993736
0.992778
0.991973
0.991305
0.990757
0.990314
0.989963
0.989692
0.989490
0.989348
0.989258
0.989213
0.989206
0.989232
0.989285
0.989362
0.989459
0.989571
0.989698
0.989836
0.989982
0.990136
0.990295
0.990459
0.989524
0.990078
0.990766
0.991608
0.992624
0.993840
0.995281
0.996975
0.998952
1.001243
1.003879
1.006889
1.010304
1.014145
1.018430
1.023166
1.028349
1.033956
1.039945
1.046251
1.052783
1.059423
1.066027
1.072428
1.078442
1.083876
1.088540
1.092258
1.094883
1.096305
1.096464
1.095354
1.093022
1.089565
1.085122
1.079862
1.073975
1.067653
1.061083
1.054438
1.047867
1.041495
1.035420
1.029712
1.024421
1.019572
1.015174
1.011223
1.007704
1.004595
1.001868
0.999494
0.997442
0.995680
0.994178
0.992909
0.991844
0.990961
0.990237
0.989651
0.989186
0.988825
0.988554
0.988361
0.988235
0.988166
0.988145
0.988165
0.988221
0.988305
0.988414
0.988543
0.988688
0.988847
0.989016
0.989195
0.989379
0.989568
0.989761
0.989955
0.987776
0.988230
0.988818
0.989561
0.990484
0.991612
0.992977
0.994611
0.996549
0.998829
1.001492
1.004575
1.008119
1.012158
1.016721
1.021828
1.027484
1.033676
1.040366
1.047489
1.054947
1.062607
1.070298
1.077820
1.084944
1.091426
1.097023
1.101507
1.104684
1.106409
1.106602
1.105255
1.102431
1.098257
1.092918
1.086634
1.079647
1.072203
1.064534
1.056849
1.049327
1.042109
1.035303
1.028983
1.023191
1.017947
1.013249
1.009081
1.005417
1.002222
0.999458
0.997085
0.995065
0.993359
0.991930
0.990745
0.989774
0.988988
0.988364
0.987878
0.987511
0.987246
0.987069
0.986965
0.986924
0.986935
0.986991
0.987084
0.987206
0.987354
0.987523
0.987707
0.987905
0.988112
0.988327
0.988547
0.988771
0.988997
0.989224
0.989451
0.985915
0.986251
0.986718
0.987339
0.988140
0.989152
0.990408
0.991947
0.993809
0.996041
0.998692
1.001811
1.005451
1.009661
1.014486
1.019961
1.026107
1.032925
1.040388
1.048434
1.056961
1.065819
1.074811
1.083694
1.092184
1.099972
1.106743
1.112197
1.116076
1.118188
1.118426
1.116776
1.113323
1.108241
1.101772
1.094209
1.085865
1.077053
1.068063
1.059151
1.050526
1.042348
1.034732
1.027749
1.021434
1.015793
1.010808
1.006448
1.002671
0.999426
0.996663
0.994331
0.992380
0.990765
0.989442
0.988372
0.987521
0.986858
0.986354
0.985988
0.985736
0.985583
0.985511
0.985508
0.985561
0.985662
0.985802
0.985972
0.986168
0.986384
0.986616
0.986860
0.987112
0.987370
0.987633
0.987897
0.988162
0.988426
0.988688
0.988948
0.983946
0.984143
0.984467
0.984939
0.985590
0.986453
0.987563
0.988966
0.990708
0.992844
0.995433
0.998539
1.002228
1.006567
1.011621
1.017447
1.024088
1.031565
1.039870
1.048951
1.058706
1.068974
1.079526
1.090069
1.100252
1.109680
1.117941
1.124637
1.129423
1.132036
1.132330
1.130288
1.126025
1.119776
1.111870
1.102696
1.092664
1.082176
1.071596
1.061233
1.051332
1.042071
1.033565
1.025878
1.019029
1.013003
1.007761
1.003249
0.999404
0.996159
0.993447
0.991203
0.989367
0.987885
0.986705
0.985785
0.985084
0.984570
0.984212
0.983985
0.983867
0.983839
0.983887
0.983995
0.984153
0.984352
0.984582
0.984837
0.985111
0.985399
0.985698
0.986004
0.986314
0.986625
0.986937
0.987247
0.987554
0.987857
0.988155
0.988448
0.981875
0.981914
0.982070
0.982367
0.982835
0.983510
0.984434
0.985653
0.987222
0.989205
0.991671
0.994699
0.998372
1.002779
1.008009
1.014148
1.021269
1.029423
1.038630
1.048860
1.060020
1.071942
1.084368
1.096946
1.109241
1.120745
1.130918
1.139226
1.145196
1.148467
1.148835
1.146277
1.140954
1.133190
1.123435
1.112212
1.100065
1.087514
1.075013
1.062938
1.051568
1.041094
1.031626
1.023209
1.015834
1.009456
1.004006
0.999401
0.995553
0.992373
0.989773
0.987677
0.986010
0.984709
0.983716
0.982983
0.982466
0.982130
0.981941
0.981875
0.981909
0.982024
0.982204
0.982435
0.982707
0.983011
0.983338
0.983683
0.984040
0.984405
0.984774
0.985145
0.985514
0.985881
0.986243
0.986600
0.986950
0.987293
0.987629
0.987956
0.979714
0.979573
0.979536
0.979628
0.979879
0.980328
0.981017
0.981999
0.983335
0.985097
0.987365
0.990233
0.993805
0.998195
1.003522
1.009907
1.017463
1.026286
1.036436
1.047922
1.060676
1.074533
1.089209
1.104292
1.119240
1.133400
1.146054
1.156477
1.164015
1.168163
1.168631
1.165386
1.158655
1.148896
1.136733
1.122881
1.108066
1.092961
1.078139
1.064046
1.050996
1.039183
1.028697
1.019547
1.011682
1.005014
0.999434
0.994822
0.991056
0.988022
0.985613
0.983733
0.982298
0.981233
0.980476
0.979971
0.979674
0.979546
0.979553
0.979670
0.979874
0.980146
0.980471
0.980836
0.981232
0.981648
0.982079
0.982519
0.982963
0.983408
0.983850
0.984288
0.984719
0.985142
0.985556
0.985961
0.986355
0.986738
0.987110
0.987472
0.977475
0.977134
0.976879
0.976736
0.976735
0.976914
0.977319
0.978005
0.979038
0.980499
0.982479
0.985088
0.988451
0.992709
0.998019
1.004544
1.012451
1.021894
1.032996
1.045825
1.060363
1.076469
1.093848
1.112021
1.130323
1.147912
1.163826
1.177068
1.186716
1.192051
1.192654
1.188477
1.179849
1.167425
1.152086
1.134823
1.116615
1.098339
1.080710
1.064251
1.049303
1.036040
1.024510
1.014662
1.006385
0.999530
0.993932
0.989426
0.985852
0.983067
0.980941
0.979360
0.978228
0.977461
0.976992
0.976761
0.976721
0.976832
0.977061
0.977383
0.977775
0.978219
0.978701
0.979211
0.979737
0.980273
0.980813
0.981352
0.981887
0.982414
0.982932
0.983438
0.983932
0.984413
0.984880
0.985332
0.985771
0.986194
0.986604
0.986999
0.975176
0.974615
0.974118
0.973709
0.973419
0.973284
0.973351
0.973678
0.974333
0.975402
0.976989
0.979219
0.982238
0.986217
0.991354
0.997865
1.005982
1.015938
1.027945
1.042164
1.058660
1.077353
1.097962
1.119958
1.142527
1.164587
1.184840
1.201896
1.214436
1.221409
1.222199
1.216734
1.205502
1.189458
1.169873
1.148137
1.125584
1.103358
1.082342
1.063134
1.046074
1.031288
1.018740
1.008289
0.999734
0.992844
0.987385
0.983135
0.979893
0.977481
0.975746
0.974557
0.973807
0.973406
0.973280
0.973369
0.973624
0.974006
0.974483
0.975031
0.975627
0.976258
0.976909
0.977570
0.978235
0.978896
0.979550
0.980192
0.980820
0.981432
0.982026
0.982603
0.983160
0.983699
0.984219
0.984719
0.985202
0.985666
0.986112
0.986541
0.972837
0.972037
0.971276
0.970574
0.969959
0.969466
0.969141
0.969040
0.969235
0.969814
0.970890
0.972600
0.975111
0.978625
0.983383
0.989663
0.997777
1.008057
1.020838
1.036417
1.054996
1.076616
1.101062
1.127781
1.155811
1.183761
1.209873
1.232181
1.248761
1.258043
1.259097
1.251815
1.236932
1.215885
1.190537
1.162869
1.134713
1.107559
1.082478
1.060120
1.040775
1.024461
1.011005
1.000130
0.991507
0.984799
0.979688
0.975886
0.973145
0.971252
0.970032
0.969340
0.969058
0.969092
0.969367
0.969822
0.970410
0.971094
0.971843
0.972635
0.973452
0.974280
0.975109
0.975931
0.976739
0.977530
0.978301
0.979048
0.979771
0.980468
0.981140
0.981787
0.982408
0.983005
0.983577
0.984126
0.984652
0.985156
0.985638
0.986101
0.970484
0.969430
0.968383
0.967362
0.966388
0.965496
0.964725
0.964129
0.963779
0.963763
0.964197
0.965227
0.967039
0.969862
0.973981
0.979740
0.987541
0.997844
1.011143
1.027928
1.048618
1.073461
1.102404
1.134944
1.169988
1.205778
1.239920
1.269599
1.291950
1.304570
1.306008
1.296094
1.275979
1.247873
1.214573
1.178950
1.143527
1.110233
1.080323
1.054435
1.032721
1.014994
1.000868
0.989863
0.981481
0.975253
0.970758
0.967640
0.965599
0.964392
0.963824
0.963739
0.964015
0.964557
0.965290
0.966156
0.967113
0.968125
0.969167
0.970221
0.971271
0.972307
0.973321
0.974309
0.975265
0.976188
0.977077
0.977930
0.978749
0.979532
0.980282
0.980998
0.981683
0.982336
0.982960
0.983556
0.984125
0.984667
0.985186
0.985680
0.968145
0.966825
0.965477
0.964113
0.962753
0.961422
0.960154
0.958999
0.958019
0.957300
0.956956
0.957134
0.958030
0.959896
0.963056
0.967917
0.974984
0.984862
0.998246
1.015892
1.038537
1.066777
1.100877
1.140533
1.184607
1.230931
1.276260
1.316509
1.347318
1.364897
1.366908
1.353076
1.325261
1.286970
1.242505
1.196086
1.151203
1.110299
1.074753
1.045055
1.021058
1.002228
0.987850
0.977164
0.969456
0.964094
0.960551
0.958394
0.957282
0.956944
0.957174
0.957811
0.958735
0.959853
0.961097
0.962416
0.963772
0.965136
0.966490
0.967818
0.969111
0.970361
0.971566
0.972721
0.973827
0.974884
0.975891
0.976851
0.977764
0.978632
0.979458
0.980243
0.980989
0.981699
0.982373
0.983014
0.983624
0.984205
0.984757
0.985283
0.965851
0.964258
0.962597
0.960875
0.959105
0.957304
0.955497
0.953724
0.952037
0.950510
0.949249
0.948395
0.948143
0.948753
0.950578
0.954079
0.959858
0.968679
0.981480
0.999356
1.023499
1.055052
1.094853
1.143072
1.198748
1.259351
1.320529
1.376301
1.419874
1.445069
1.447967
1.428100
1.388603
1.335239
1.274801
1.213576
1.156361
1.106133
1.064207
1.030652
1.004757
0.985427
0.971466
0.961745
0.955283
0.951275
0.949080
0.948203
0.948267
0.948991
0.950166
0.951636
0.953291
0.955049
0.956851
0.958657
0.960437
0.962172
0.963848
0.965459
0.967000
0.968468
0.969864
0.971188
0.972444
0.973632
0.974756
0.975820
0.976826
0.977777
0.978677
0.979528
0.980334
0.981097
0.981820
0.982505
0.983154
0.983771
0.984356
0.984911
0.963638
0.961769
0.959790
0.957702
0.955508
0.953214
0.950836
0.948397
0.945936
0.943510
0.941205
0.939144
0.937505
0.936542
0.936611
0.938207
0.942010
0.948934
0.960179
0.977258
1.001971
1.036276
1.081982
1.140222
1.210690
1.290764
1.374786
1.453973
1.517480
1.554842
1.559168
1.529626
1.471759
1.395439
1.311692
1.229973
1.156749
1.095348
1.046573
1.009572
0.982645
0.963836
0.951287
0.943407
0.938920
0.936844
0.936446
0.937189
0.938686
0.940661
0.942919
0.945324
0.947782
0.950231
0.952627
0.954943
0.957163
0.959278
0.961284
0.963181
0.964970
0.966655
0.968240
0.969730
0.971131
0.972448
0.973686
0.974850
0.975945
0.976976
0.977947
0.978861
0.979724
0.980538
0.981306
0.982032
0.982719
0.983369
0.983984
0.984568
0.961542
0.959401
0.957108
0.954653
0.952030
0.949235
0.946266
0.943133
0.939850
0.936453
0.932997
0.929574
0.926328
0.923478
0.921354
0.920443
0.921460
0.925430
0.933797
0.948531
0.972192
1.007888
1.058971
1.128358
1.217353
1.324032
1.441540
1.557103
1.653027
1.710787
1.717538
1.671697
1.583680
1.471240
1.352790
1.242536
1.148775
1.074512
1.019087
0.979857
0.953496
0.936794
0.927043
0.922127
0.920483
0.920989
0.922863
0.925568
0.928739
0.932133
0.935592
0.939010
0.942325
0.945498
0.948509
0.951347
0.954013
0.956509
0.958842
0.961021
0.963053
0.964948
0.966717
0.968367
0.969908
0.971347
0.972693
0.973953
0.975132
0.976237
0.977274
0.978248
0.979164
0.980025
0.980836
0.981601
0.982322
0.983003
0.983646
0.984255
0.959600
0.957200
0.954602
0.951791
0.948748
0.945456
0.941898
0.938061
0.933936
0.929526
0.924848
0.919949
0.914916
0.909904
0.905174
0.901149
0.898502
0.898281
0.902090
0.912311
0.932358
0.966832
1.021397
1.102047
1.213458
1.356280
1.523592
1.697536
1.848807
1.942914
1.954063
1.878976
1.738822
1.567424
1.396303
1.246330
1.126896
1.038892
0.978352
0.939418
0.916243
0.903930
0.898778
0.898168
0.900324
0.904080
0.908681
0.913653
0.918699
0.923642
0.928380
0.932860
0.937057
0.940966
0.944592
0.947949
0.951053
0.953920
0.956569
0.959018
0.961282
0.963377
0.965319
0.967119
0.968791
0.970345
0.971791
0.973138
0.974395
0.975570
0.976668
0.977696
0.978660
0.979564
0.980414
0.981213
0.981966
0.982675
0.983344
0.983976
0.957851
0.955208
0.952327
0.949181
0.945741
0.941975
0.937848
0.933326
0.928370
0.922946
0.917027
0.910597
0.903668
0.896300
0.888638
0.880965
0.873809
0.868092
0.865389
0.868311
0.881030
0.909878
0.963723
1.053524
1.190357
1.381382
1.623429
0.000000
0.000000
0.000000
0.000000
0.000000
0.000000
1.689863
1.437580
1.232920
1.082936
0.982349
0.920595
0.886427
0.870366
0.865461
0.867053
0.872197
0.879100
0.886705
0.894404
0.901863
0.908910
0.915467
0.921514
0.927059
0.932129
0.936756
0.940978
0.944831
0.948350
0.951567
0.954512
0.957211
0.959690
0.961969
0.964069
0.966007
0.967797
0.969455
0.970991
0.972418
0.973745
0.974981
0.976134
0.977210
0.978217
0.979160
0.980044
0.980874
0.981654
0.982389
0.983080
0.983733
0.956329
0.953471
0.950336
0.946887
0.943086
0.938887
0.934237
0.929076
0.923339
0.916951
0.909832
0.901897
0.893069
0.883283
0.872520
0.860852
0.848530
0.836154
0.824966
0.817387
0.817911
0.834445
0.879840
0.972554
1.134853
1.387682
0.000000
0.000000
0.000000
0.000000
0.000000
0.000000
0.000000
0.000000
0.000000
1.188891
1.005711
0.897749
0.842461
0.820136
0.816520
0.822602
0.833177
0.845407
0.857817
0.869682
0.880683
0.890714
0.899777
0.907928
0.915243
0.921806
0.927699
0.932997
0.937769
0.942076
0.945972
0.949504
0.952715
0.955639
0.958308
0.960750
0.962990
0.965048
0.966942
0.968690
0.970306
0.971802
0.973189
0.974478
0.975678
0.976797
0.977841
0.978816
0.979730
0.980587
0.981390
0.982146
0.982857
0.983526
0.955067
0.952027
0.948676
0.944970
0.940859
0.936285
0.931179
0.925460
0.919032
0.911781
0.903577
0.894262
0.883658
0.871566
0.857770
0.842068
0.824323
0.804592
0.783394
0.762296
0.745119
0.740296
0.764699
0.847449
1.029213
0.000000
0.000000
0.000000
0.000000
0.000000
0.000000
0.000000
0.000000
0.000000
0.000000
1.095489
0.881847
0.778489
0.742748
0.742275
0.757408
0.778012
0.799393
0.819567
0.837826
0.854031
0.868285
0.880783
0.891739
0.901358
0.909825
0.917301
0.923923
0.929810
0.935061
0.939761
0.943982
0.947784
0.951220
0.954334
0.957165
0.959744
0.962100
0.964259
0.966240
0.968063
0.969744
0.971297
0.972735
0.974068
0.975307
0.976460
0.977534
0.978537
0.979475
0.980353
0.981176
0.981949
0.982676
0.983359
0.954094
0.950912
0.947390
0.943480
0.939124
0.934252
0.928781
0.922612
0.915623
0.907667
0.898564
0.888095
0.875986
0.861903
0.845435
0.826082
0.803260
0.776332
0.744746
0.708439
0.668979
0.632648
0.617970
0.668399
0.000000
0.000000
0.000000
0.000000
0.000000
0.000000
0.000000
0.000000
0.000000
0.000000
0.000000
0.000000
0.699197
0.622067
0.625782
0.659174
0.698742
0.736092
0.768888
0.796938
0.820727
0.840889
0.858028
0.872665
0.885233
0.896085
0.905506
0.913731
0.920947
0.927309
0.932944
0.937957
0.942436
0.946451
0.950065
0.953328
0.956284
0.958970
0.961418
0.963654
0.965703
0.967584
0.969316
0.970913
0.972389
0.973756
0.975024
0.976203
0.977301
0.978325
0.979281
0.980176
0.981014
0.981800
0.982538
0.983233
0.953432
0.950152
0.946513
0.942462
0.937936
0.932856
0.927130
0.920645
0.913260
0.904803
0.895058
0.883755
0.870549
0.854996
0.836522
0.814374
0.787560
0.754769
0.714292
0.664008
0.601752
0.527350
0.452042
0.433809
0.000000
0.000000
0.000000
0.000000
0.000000
0.000000
0.000000
0.000000
0.000000
0.000000
0.000000
0.000000
0.453816
0.437912
0.507595
0.584181
0.649637
0.702730
0.745447
0.779982
0.808153
0.831363
0.850677
0.866901
0.880648
0.892391
0.902497
0.911253
0.918889
0.925585
0.931489
0.936721
0.941378
0.945541
0.949277
0.952643
0.955686
0.958445
0.960955
0.963245
0.965339
0.967260
0.969026
0.970653
0.972155
0.973545
0.974834
0.976031
0.977144
0.978182
0.979151
0.980056
0.980904
0.981700
0.982446
0.983148
0.953098
0.949767
0.946068
0.941945
0.937332
0.932146
0.926289
0.919640
0.912050
0.903333
0.893253
0.881513
0.867727
0.851392
0.831840
0.808169
0.779144
0.743030
0.697340
0.638425
0.560821
0.456347
0.314591
0.160981
0.000000
0.000000
0.000000
0.000000
0.000000
0.000000
0.000000
0.000000
0.000000
0.000000
0.000000
0.000000
0.000000
0.273020
0.424778
0.537613
0.621042
0.684027
0.732624
0.770862
0.801473
0.826350
0.846836
0.863905
0.878276
0.890487
0.900951
0.909985
0.917837
0.924706
0.930749
0.936093
0.940841
0.945080
0.948878
0.952297
0.955383
0.958180
0.960721
0.963038
0.965156
0.967097
0.968880
0.970522
0.972038
0.973439
0.974738
0.975944
0.977065
0.978110
0.979085
0.979997
0.980850
0.981649
0.982400
0.983105
0.953098
0.949767
0.946068
0.941945
0.937332
0.932146
0.926289
0.919640
0.912050
0.903333
0.893253
0.881513
0.867727
0.851392
0.831840
0.808169
0.779144
0.743030
0.697340
0.638425
0.560821
0.456347
0.314591
0.160981
0.000000
0.000000
0.000000
0.000000
0.000000
0.000000
0.000000
0.000000
0.000000
0.000000
0.000000
0.000000
0.000000
0.273020
0.424778
0.537613
0.621042
0.684027
0.732624
0.770862
0.801473
0.826350
0.846836
0.863905
0.878276
0.890487
0.900951
0.909985
0.917837
0.924706
0.930749
0.936093
0.940841
0.945080
0.948878
0.952297
0.955383
0.958180
0.960721
0.963038
0.965156
0.967097
0.968880
0.970522
0.972038
0.973439
0.974738
0.975944
0.977065
0.978110
0.979085
0.979997
0.980850
0.981649
0.982400
0.983105
0.953432
0.950152
0.946513
0.942462
0.937936
0.932856
0.927130
0.920645
0.913260
0.904803
0.895058
0.883755
0.870549
0.854996
0.836522
0.814374
0.787560
0.754769
0.714292
0.664008
0.601752
0.527350
0.452042
0.433809
0.000000
0.000000
0.000000
0.000000
0.000000
0.000000
0.000000
0.000000
0.000000
0.000000
0.000000
0.000000
0.453816
0.437912
0.507595
0.584181
0.649637
0.702730
0.745447
0.779982
0.808153
0.831363
0.850677
0.866901
0.880648
0.892391
0.902497
0.911253
0.918889
0.925585
0.931489
0.936721
0.941378
0.945541
0.949277
0.952643
0.955686
0.958445
0.960955
0.963245
0.965339
0.967260
0.969026
0.970653
0.972155
0.973545
0.974834
0.976031
0.977144
0.978182
0.979151
0.980056
0.980904
0.981700
0.982446
0.983148
0.954094
0.950912
0.947390
0.943480
0.939124
0.934252
0.928781
0.922612
0.915623
0.907667
0.898564
0.888095
0.875986
0.861903
0.845435
0.826082
0.803260
0.776332
0.744746
0.708439
0.668979
0.632648
0.617970
0.668399
0.000000
0.000000
0.000000
0.000000
0.000000
0.000000
0.000000
0.000000
0.000000
0.000000
0.000000
0.000000
0.699197
0.622067
0.625782
0.659174
0.698742
0.736092
0.768888
0.796938
0.820727
0.840889
0.858028
0.872665
0.885233
0.896085
0.905506
0.913731
0.920947
0.927309
0.932944